written on 25Jun2019 at 22:17:45
  1
  4
  1 1 1 1
 1    0   0    1    1   -1.000000   -0.000000
 0    1   0    1    1   -1.000000   -0.000000
-1    0   0    1    1   -1.000000   -0.000000
 0   -1   0    1    1   -1.000000   -0.000000
  
